 VARIABLES = "X", "Y", "U" 
 ZONE F=FEPOINT, ET=TRIANGLE, N=          81  E=         128
  0.0000000E+00  0.0000000E+00  1.7945832E-02
   1.000000      0.0000000E+00 -6.1246590E-03
   1.000000       1.000000     -6.3710127E-06
  0.0000000E+00   1.000000      1.4035367E-04
  0.5000000      0.5000000     -3.4086321E-02
  0.0000000E+00  0.5000000      1.7244032E-02
  0.5000000      0.0000000E+00  0.3452043    
   1.000000      0.5000000     -2.0657636E-03
  0.5000000       1.000000     -4.6237863E-05
  0.2500000      0.2500000      0.1845379    
  0.2500000      0.7500000      1.3942542E-03
  0.7500000      0.2500000     -2.3241095E-02
  0.7500000      0.7500000     -8.8667619E-04
  0.2500000      0.5000000     -1.1323239E-02
  0.0000000E+00  0.2500000      1.7139973E-02
  0.2500000      0.0000000E+00  9.5197521E-02
  0.5000000      0.2500000      0.3030381    
  0.0000000E+00  0.7500000     -1.0153720E-04
  0.5000000      0.7500000      5.1142695E-05
  0.2500000       1.000000      8.6960696E-05
  0.7500000      0.0000000E+00 -4.9356010E-02
   1.000000      0.2500000     -5.6086672E-03
  0.7500000      0.5000000     -9.1604493E-04
   1.000000      0.7500000     -1.3309442E-04
  0.7500000       1.000000     -4.6703408E-06
  0.6250000      0.6250000      2.1083769E-03
  0.6250000      0.5000000     -2.1686892E-04
  0.7500000      0.6250000     -5.8812462E-04
  0.2500000      0.3750000      2.6788387E-02
  0.1250000      0.5000000     -2.6587110E-03
  0.1250000      0.3750000     -2.0308394E-02
  0.1250000       1.000000      9.4813018E-05
  0.1250000      0.8750000     -4.3037104E-05
  0.2500000      0.8750000      4.4738490E-06
  0.0000000E+00  0.6250000      3.8136766E-04
  0.1250000      0.6250000      8.6332497E-04
  0.1250000      0.7500000      3.0326637E-04
  0.3750000      0.2500000      0.3515330    
  0.5000000      0.3750000      1.3801262E-02
  0.3750000      0.3750000      6.1808106E-02
  0.6250000      0.3750000      4.2138454E-03
  0.6250000      0.2500000     -1.3501614E-02
  0.7500000      0.3750000      2.0297628E-03
  0.6250000      0.8750000      1.1863061E-05
  0.5000000      0.8750000      3.1424956E-06
  0.6250000      0.7500000     -1.1979918E-03
  0.3750000      0.1250000      0.6368111    
  0.2500000      0.1250000      0.1925938    
  0.3750000      0.0000000E+00  0.2500208    
  0.1250000      0.1250000      7.8386134E-03
  0.1250000      0.2500000     -1.4669612E-03
  0.0000000E+00  0.1250000      1.5733276E-02
  0.3750000      0.8750000      2.5473986E-04
  0.3750000      0.7500000     -2.0532635E-04
  0.2500000      0.6250000     -2.9194546E-03
  0.8750000      0.3750000      4.9264785E-03
  0.8750000      0.2500000      1.5859645E-03
   1.000000      0.3750000     -1.4693470E-03
  0.8750000      0.1250000      1.8520903E-02
  0.7500000      0.1250000     -2.4302075E-02
  0.8750000      0.0000000E+00  4.4815238E-03
  0.7500000      0.8750000      1.6614516E-05
  0.6250000       1.000000     -1.6338026E-05
  0.8750000      0.8750000     -1.1809986E-05
  0.8750000      0.7500000     -6.8513822E-05
   1.000000      0.8750000      9.4343441E-06
  0.3750000      0.5000000     -1.2577085E-02
  0.3750000      0.6250000     -5.2305750E-05
  0.0000000E+00  0.3750000      2.5794018E-02
  0.1250000      0.0000000E+00 -1.0263923E-02
  0.5000000      0.1250000      0.4518182    
  0.6250000      0.1250000      4.8241477E-02
  0.0000000E+00  0.8750000     -5.1321284E-05
  0.5000000      0.6250000     -9.3487964E-04
  0.3750000       1.000000     -5.9425260E-05
  0.6250000      0.0000000E+00  7.0610093E-03
   1.000000      0.1250000     -3.7749205E-03
  0.8750000      0.5000000     -2.0391955E-03
  0.8750000      0.6250000      4.5789627E-04
   1.000000      0.6250000      1.7895606E-04
  0.8750000       1.000000     -2.6066245E-06
          23          28          27
          13          26          28
           5          27          26
          26          27          28
           6          31          30
          10          29          31
          14          30          29
          29          30          31
          11          34          33
          20          32          34
           4          33          32
          32          33          34
          11          37          36
          18          35          37
           6          36          35
          35          36          37
           5          40          39
          10          38          40
          17          39          38
          38          39          40
          17          42          39
          12          41          42
           5          39          41
          41          39          42
           5          41          27
          12          43          41
          23          27          43
          43          27          41
          19          46          45
          13          44          46
           9          45          44
          44          45          46
          16          49          48
           7          47          49
          10          48          47
          47          48          49
          15          52          51
           1          50          52
          10          51          50
          50          51          52
          19          45          54
           9          53          45
          11          54          53
          53          54          45
           6          30          36
          14          55          30
          11          36          55
          55          36          30
          22          58          57
           8          56          58
          12          57          56
          56          57          58
          21          61          60
           2          59          61
          12          60          59
          59          60          61
          25          63          62
           9          44          63
          13          62          44
          44          62          63
          24          66          65
           3          64          66
          13          65          64
          64          65          66
           5          68          67
          11          55          68
          14          67          55
          55          67          68
          10          40          29
           5          67          40
          14          29          67
          67          29          40
          10          31          51
           6          69          31
          15          51          69
          69          51          31
          10          50          48
           1          70          50
          16          48          70
          70          48          50
           7          72          71
          12          42          72
          17          71          42
          42          71          72
          10          47          38
           7          71          47
          17          38          71
          71          38          47
          11          33          37
           4          73          33
          18          37          73
          73          37          33
           5          26          74
          13          46          26
          19          74          46
          46          74          26
          11          68          54
           5          74          68
          19          54          74
          74          54          68
          11          53          34
           9          75          53
          20          34          75
          75          34          53
          12          72          60
           7          76          72
          21          60          76
          76          60          72
          12          59          57
           2          77          59
          22          57          77
          77          57          59
           8          79          78
          13          28          79
          23          78          28
          28          78          79
          12          56          43
           8          78          56
          23          43          78
          78          43          56
          13          79          65
           8          80          79
          24          65          80
          80          65          79
          13          64          62
           3          81          64
          25          62          81
          81          62          64
