 VARIABLES = "X", "Y", "U" 
 ZONE F=FEPOINT, ET=TRIANGLE, N=         289  E=         512
  0.0000000E+00  0.0000000E+00 -8.1493496E-04
   1.000000      0.0000000E+00 -2.3575786E-04
   1.000000       1.000000     -1.4542454E-13
  0.0000000E+00   1.000000      5.7267647E-14
  0.5000000      0.5000000      5.1089497E-03
  0.0000000E+00  0.5000000      1.2675210E-05
  0.5000000      0.0000000E+00  8.3107956E-02
   1.000000      0.5000000      1.7837168E-05
  0.5000000       1.000000      4.8022248E-08
  0.2500000      0.2500000      6.7261726E-02
  0.2500000      0.7500000      2.6347278E-05
  0.7500000      0.2500000      4.7720266E-03
  0.7500000      0.7500000     -1.9566366E-07
  0.2500000      0.5000000      3.9787726E-03
  0.0000000E+00  0.2500000      1.5523684E-03
  0.2500000      0.0000000E+00  6.5830108E-03
  0.5000000      0.2500000      0.1612826    
  0.0000000E+00  0.7500000     -1.3135885E-06
  0.5000000      0.7500000      1.1516800E-05
  0.2500000       1.000000      1.3010080E-07
  0.7500000      0.0000000E+00  4.7326228E-03
   1.000000      0.2500000     -3.2315962E-05
  0.7500000      0.5000000      4.6483605E-04
   1.000000      0.7500000     -4.8668102E-07
  0.7500000       1.000000     -2.7406977E-09
  0.1250000      0.3750000      8.1901588E-03
  0.3750000      0.3750000     -1.3749244E-02
  0.3750000      0.6250000     -4.4957229E-05
  0.1250000      0.6250000     -8.3200524E-05
  0.1250000      0.1250000     -3.9334623E-03
  0.3750000      0.1250000      0.9665802    
  0.6250000      0.1250000     -1.7643312E-02
  0.6250000      0.3750000      9.7605176E-03
  0.1250000      0.8750000     -6.1123899E-07
  0.3750000      0.8750000     -7.8279641E-07
  0.6250000      0.6250000     -4.5037752E-05
  0.6250000      0.8750000     -1.2222803E-07
  0.8750000      0.1250000     -5.0018280E-04
  0.8750000      0.3750000      2.8868712E-04
  0.8750000      0.6250000     -7.1113959E-06
  0.8750000      0.8750000     -3.5044199E-08
  0.2500000      0.3750000     -1.0475509E-02
  0.1250000      0.5000000      4.3766628E-04
  0.0000000E+00  0.3750000      3.1203081E-04
  0.1250000      0.2500000      9.9114201E-04
  0.3750000      0.5000000      1.1490966E-03
  0.3750000      0.2500000      0.4613200    
  0.5000000      0.3750000     -8.3592748E-03
  0.2500000      0.6250000     -9.4283401E-05
  0.5000000      0.6250000     -9.9791803E-05
  0.3750000      0.7500000      9.5555561E-06
  0.1250000      0.7500000      2.3891662E-06
  0.0000000E+00  0.6250000     -3.0279462E-08
  0.0000000E+00  0.1250000      4.5754472E-04
  0.1250000      0.0000000E+00  1.4452979E-03
  0.2500000      0.1250000      0.1845546    
  0.3750000      0.0000000E+00  0.2033657    
  0.5000000      0.1250000      0.4904274    
  0.6250000      0.2500000     -1.0703918E-02
  0.6250000      0.0000000E+00 -1.7445954E-02
  0.7500000      0.1250000      4.9838400E-03
  0.7500000      0.3750000      4.6488197E-04
  0.6250000      0.5000000      3.6524718E-05
  0.0000000E+00  0.8750000      1.0772198E-14
  0.2500000      0.8750000     -2.3529526E-07
  0.1250000       1.000000      2.6921568E-14
  0.5000000      0.8750000     -1.7178350E-07
  0.3750000       1.000000      9.4151154E-08
  0.6250000      0.7500000     -7.6456382E-07
  0.7500000      0.6250000     -9.6015162E-07
  0.7500000      0.8750000      1.4495227E-08
  0.6250000       1.000000      5.4746607E-09
  0.8750000      0.0000000E+00  1.1567431E-04
   1.000000      0.1250000     -1.2245529E-05
  0.8750000      0.2500000     -1.8228875E-05
   1.000000      0.3750000      1.5777832E-05
  0.8750000      0.5000000      2.0369802E-05
   1.000000      0.6250000      1.5554371E-06
  0.8750000      0.7500000     -6.6041775E-07
   1.000000      0.8750000      9.8876860E-14
  0.8750000       1.000000     -3.2761806E-13
  0.6875000      0.6875000      2.6045075E-08
  0.6875000      0.6250000      2.3525091E-07
  0.7500000      0.6875000     -4.8254134E-07
  0.2500000      0.4375000     -2.8265058E-03
  0.1875000      0.4375000     -7.1336247E-04
  0.1875000      0.3750000     -4.1288817E-03
  6.2500000E-02   1.000000      6.7111877E-14
  6.2500000E-02  0.9375000      1.7649448E-14
  0.1250000      0.9375000      6.2367720E-14
  0.0000000E+00  0.5625000     -3.1298787E-05
  6.2500000E-02  0.5625000      1.4843683E-05
  6.2500000E-02  0.6250000     -9.9416084E-06
  0.4375000      0.3750000     -4.1486090E-03
  0.5000000      0.4375000     -3.6931052E-04
  0.4375000      0.4375000     -9.2440443E-03
  0.5625000      0.4375000     -4.1123846E-04
  0.5625000      0.3750000      1.8319716E-03
  0.6250000      0.4375000      5.1800540E-04
  0.5625000      0.5000000      7.4359716E-04
  0.5625000      0.9375000     -8.5381862E-09
  0.5000000      0.9375000     -7.6871659E-10
  0.5625000      0.8750000     -2.3360683E-07
  0.3125000      0.1875000      0.5619459    
  0.2500000      0.1875000      0.1634102    
  0.3125000      0.1250000      0.5696260    
  0.1875000      0.1875000      1.3151195E-02
  0.1875000      0.2500000     -3.3458951E-03
  0.1250000      0.1875000     -1.8390308E-03
  0.3125000      0.8125000      4.9935088E-06
  0.3125000      0.7500000      9.8561604E-06
  0.3750000      0.8125000      1.6128391E-06
  0.1250000      0.5625000     -5.0440041E-05
  6.2500000E-02  0.5000000     -1.0419697E-04
  0.8125000      0.3125000     -6.2578660E-04
  0.8125000      0.2500000     -9.6211350E-04
  0.8750000      0.3125000      4.2398222E-04
  0.8125000      0.1875000      3.2218042E-04
  0.7500000      0.1875000      3.9614066E-03
  0.8125000      0.1250000      2.1260225E-03
  0.6250000      0.9375000     -6.0662644E-09
  0.5625000       1.000000      3.3595215E-09
  0.8125000      0.8125000      1.0201699E-07
  0.8125000      0.7500000     -5.1277649E-08
  0.8750000      0.8125000      1.1709250E-07
  0.2500000      0.5625000      5.6854071E-04
  0.3125000      0.5625000      5.4015423E-04
  0.3125000      0.6250000     -3.8780017E-05
  0.3125000      0.5000000      2.9213936E-03
  0.3125000      0.4375000     -8.1116632E-03
  0.3750000      0.4375000     -1.0709953E-02
  0.1250000      0.3125000      7.7358531E-03
  0.1875000      0.3125000     -1.5366198E-02
  0.1875000      0.1250000      2.0222489E-02
  0.5625000      0.2500000      5.3148814E-02
  0.5625000      0.1875000      7.4898511E-02
  0.6250000      0.1875000     -1.3765677E-02
  0.4375000      0.1875000      0.7673541    
  0.4375000      0.2500000      0.4018282    
  0.3750000      0.1875000      0.8119000    
  0.0000000E+00  0.8125000      1.7278573E-12
  6.2500000E-02  0.8125000     -4.0867087E-07
  6.2500000E-02  0.8750000      3.1678065E-13
  0.5625000      0.7500000     -2.2170065E-07
  0.5625000      0.6875000      2.2920908E-06
  0.6250000      0.6875000      2.2048127E-06
  0.3750000      0.6875000     -3.5988545E-05
  0.3125000      0.6875000     -5.2054565E-05
  0.3125000      0.9375000     -9.2579633E-08
  0.2500000      0.9375000     -1.1038928E-07
  0.3125000      0.8750000     -2.2408526E-07
  0.6875000      0.1250000     -7.6694023E-03
  0.6875000      0.1875000     -8.2700672E-03
  0.8750000      0.1875000     -6.1478565E-04
  0.8125000      0.6250000      3.1809768E-07
  0.8125000      0.6875000      2.8423918E-07
  0.8125000      0.4375000      2.1677645E-04
  0.7500000      0.4375000     -5.7892944E-04
  0.8125000      0.3750000      1.1793286E-05
  0.8750000      0.6875000      3.7566295E-07
  0.8125000      0.9375000      4.4381316E-09
  0.7500000      0.9375000      5.0020477E-09
  0.8125000      0.8750000     -5.0517954E-08
  6.2500000E-02  0.3125000      2.8030289E-04
  6.2500000E-02  0.3750000      4.8169840E-04
  0.0000000E+00  0.3125000      6.1724667E-04
  6.2500000E-02  0.4375000      2.7402921E-04
  0.1250000      0.4375000      1.9250039E-03
  0.4375000      0.3125000      0.1022466    
  0.3750000      0.3125000      0.1367585    
  0.3125000      0.3750000     -4.7062677E-03
  0.4375000      0.6875000     -6.2256491E-05
  0.4375000      0.6250000      1.6726118E-04
  0.5000000      0.6875000     -3.1966054E-05
  0.3750000      0.5625000      1.4070815E-03
  6.2500000E-02  0.6875000      8.3016016E-07
  0.1250000      0.6875000     -5.1346428E-06
  6.2500000E-02  0.7500000      1.1657365E-06
  0.1875000      0.6250000     -1.1579906E-04
  0.1875000      0.5625000      3.2730136E-04
  0.1875000      6.2500000E-02  8.1633795E-03
  0.1250000      6.2500000E-02 -4.6405140E-03
  0.1875000      0.0000000E+00 -5.7717124E-03
  6.2500000E-02  6.2500000E-02  1.2783367E-04
  6.2500000E-02  0.1250000     -6.7773549E-04
  0.0000000E+00  6.2500000E-02 -2.3596465E-04
  0.4375000      0.1250000      0.8254254    
  0.5000000      0.1875000      0.4472226    
  0.4375000      6.2500000E-02  0.5764753    
  0.3750000      6.2500000E-02  0.5684689    
  0.4375000      0.0000000E+00  0.1847185    
  0.6875000      6.2500000E-02 -1.4274407E-03
  0.6250000      6.2500000E-02 -1.3918033E-02
  0.6875000      0.0000000E+00  2.7051573E-03
  0.5625000      0.1250000      0.1414687    
  0.6875000      0.4375000     -5.3511432E-04
  0.6875000      0.3750000      1.0270003E-03
  0.6250000      0.3125000     -9.1599328E-03
  0.5625000      0.3125000     -3.4935677E-03
  0.1875000      0.9375000      2.7628115E-08
  0.1875000      0.8750000     -4.3585624E-07
  0.1250000      0.8125000      6.5469737E-07
  0.3750000      0.9375000     -1.1300979E-07
  0.3125000       1.000000      8.6200899E-08
  0.4375000      0.9375000     -6.5019847E-08
  0.4375000      0.8750000     -1.7347496E-07
  0.6250000      0.5625000     -5.8414022E-05
  0.5625000      0.5625000      1.2551251E-04
  0.5625000      0.6250000     -4.5196117E-05
  0.6875000      0.9375000     -2.4930726E-09
  0.6875000      0.8750000      3.5784414E-08
  0.6250000      0.8125000     -5.1300429E-08
  0.5625000      0.8125000      3.1347548E-07
  0.9375000      0.1875000      4.9587095E-05
  0.9375000      0.1250000     -5.2701456E-05
   1.000000      0.1875000      4.7451769E-05
  0.9375000      6.2500000E-02  2.7908551E-04
  0.8750000      6.2500000E-02 -6.3226069E-04
  0.9375000      0.0000000E+00  2.4420212E-04
  0.8750000      0.4375000     -5.0342558E-05
  0.8125000      0.5000000     -4.9007900E-05
  0.9375000      0.4375000     -1.6024956E-05
  0.9375000      0.3750000     -4.9706967E-05
   1.000000      0.4375000      3.1471875E-05
  0.9375000      0.6875000      1.0083426E-06
  0.9375000      0.6250000     -9.2138305E-07
   1.000000      0.6875000      2.0820437E-07
  0.8750000      0.5625000      1.2800631E-05
  0.8125000      0.5625000      4.3277223E-06
  0.8750000      0.9375000     -9.9620063E-13
  0.8125000       1.000000     -6.7277065E-12
  0.9375000      0.9375000     -8.8542976E-14
  0.9375000      0.8750000     -2.7141630E-13
   1.000000      0.9375000     -6.6166467E-14
  0.2500000      0.3125000      6.2219771E-03
  0.3125000      0.3125000      7.8788526E-02
  0.1875000      0.5000000      9.2409266E-04
  0.0000000E+00  0.4375000      9.7771503E-05
  6.2500000E-02  0.2500000     -8.5033313E-04
  6.2500000E-02  0.1875000     -2.4317014E-03
  0.4375000      0.5000000      2.3762148E-03
  0.4375000      0.5625000      5.8392511E-04
  0.3125000      0.2500000      0.2758483    
  0.5000000      0.3125000      3.6460824E-02
  0.2500000      0.6875000     -7.0911155E-05
  0.1875000      0.6875000      4.0362706E-06
  0.5000000      0.5625000      1.6633801E-04
  0.4375000      0.7500000      1.0538591E-05
  0.4375000      0.8125000      7.9106354E-07
  0.1875000      0.7500000      1.2658571E-06
  0.1875000      0.8125000      1.2315770E-06
  0.0000000E+00  0.6875000      2.8697393E-06
  0.0000000E+00  0.1875000      1.4920433E-03
  6.2500000E-02  0.0000000E+00  5.8428419E-04
  0.2500000      6.2500000E-02  0.1120303    
  0.3125000      6.2500000E-02  0.3614166    
  0.3125000      0.0000000E+00  0.1295310    
  0.5000000      6.2500000E-02  0.3041248    
  0.5625000      6.2500000E-02  6.0740530E-02
  0.6875000      0.2500000      9.4592210E-04
  0.6875000      0.3125000      5.7556774E-03
  0.5625000      0.0000000E+00 -1.4852486E-02
  0.7500000      6.2500000E-02  4.3830313E-03
  0.8125000      6.2500000E-02 -6.2080158E-04
  0.7500000      0.3125000     -3.2696753E-05
  0.6875000      0.5000000      2.2017999E-04
  0.6875000      0.5625000      4.4642422E-07
  0.0000000E+00  0.9375000      7.1643470E-14
  0.2500000      0.8125000      1.5409718E-06
  0.1875000       1.000000     -2.1613221E-14
  0.5000000      0.8125000      8.5927735E-07
  0.4375000       1.000000      7.7642262E-08
  0.6875000      0.7500000     -5.5357197E-07
  0.6875000      0.8125000     -1.0118774E-08
  0.7500000      0.5625000     -2.6772002E-06
  0.7500000      0.8125000     -6.3703567E-08
  0.6875000       1.000000      2.4931468E-09
  0.8125000      0.0000000E+00 -1.3095167E-03
   1.000000      6.2500000E-02  5.2844662E-05
  0.9375000      0.2500000      2.6456581E-04
  0.9375000      0.3125000      5.7316443E-06
   1.000000      0.3125000     -9.6931486E-05
  0.9375000      0.5000000      1.7939901E-05
  0.9375000      0.5625000      1.9029918E-07
   1.000000      0.5625000     -2.6918804E-06
  0.9375000      0.7500000     -3.9579461E-07
  0.9375000      0.8125000      5.6518246E-08
   1.000000      0.8125000      2.8007016E-13
  0.9375000       1.000000     -3.8912477E-14
          70          84          83
          13          82          84
          36          83          82
          82          83          84
          26          87          86
          42          85          87
          14          86          85
          85          86          87
          34          90          89
          66          88          90
           4          89          88
          88          89          90
          29          93          92
          53          91          93
           6          92          91
          91          92          93
           5          96          95
          27          94          96
          48          95          94
          94          95          96
          48          98          95
          33          97          98
           5          95          97
          97          95          98
           5          97         100
          33          99          97
          63         100          99
          99         100          97
          67         103         102
          37         101         103
           9         102         101
         101         102         103
          56         106         105
          31         104         106
          10         105         104
         104         105         106
          45         109         108
          30         107         109
          10         108         107
         107         108         109
          51         112         111
          35         110         112
          11         111         110
         110         111         112
           6         114          92
          43         113         114
          29          92         113
         113          92         114
          75         117         116
          39         115         117
          12         116         115
         115         116         117
          61         120         119
          38         118         120
          12         119         118
         118         119         120
          72         122         121
           9         101         122
          37         121         101
         101         121         122
          79         125         124
          41         123         125
          13         124         123
         123         124         125
          28         128         127
          49         126         128
          14         127         126
         126         127         128
          27         131         130
          46         129         131
          14         130         129
         129         130         131
          10         133         108
          26         132         133
          45         108         132
         132         108         133
          10         107         105
          30         134         107
          56         105         134
         134         105         107
          32         137         136
          59         135         137
          17         136         135
         135         136         137
          47         140         139
          31         138         140
          17         139         138
         138         139         140
          34         143         142
          64         141         143
          18         142         141
         141         142         143
          36         146         145
          69         144         146
          19         145         144
         144         145         146
          11         148         111
          28         147         148
          51         111         147
         147         111         148
          65         151         150
          35         149         151
          20         150         149
         149         150         151
          12         153         119
          32         152         153
          61         119         152
         152         119         153
          12         118         116
          38         154         118
          75         116         154
         154         116         118
          40         156         155
          13          84         156
          70         155          84
          84         155         156
          62         159         158
          39         157         159
          23         158         157
         157         158         159
          13         156         124
          40         160         156
          79         124         160
         160         124         156
          71         163         162
          41         161         163
          25         162         161
         161         162         163
          44         166         165
          15         164         166
          26         165         164
         164         165         166
          43         114         168
           6         167         114
          26         168         167
         167         168         114
          47         139         170
          17         169         139
          27         170         169
         169         170         139
          14          85         130
          42         171          85
          27         130         171
         171         130          85
          50         174         173
          19         172         174
          28         173         172
         172         173         174
          14         129         127
          46         175         129
          28         127         175
         175         127         129
          52         178         177
          18         176         178
          29         177         176
         176         177         178
          14         126         180
          49         179         126
          29         180         179
         179         180         126
          55         183         182
          16         181         183
          30         182         181
         181         182         183
          54         186         185
           1         184         186
          30         185         184
         184         185         186
          58         188         187
          17         138         188
          31         187         138
         138         187         188
          57         191         190
           7         189         191
          31         190         189
         189         190         191
          60         194         193
          21         192         194
          32         193         192
         192         193         194
          17         188         136
          58         195         188
          32         136         195
         195         136         188
          62         158         197
          23         196         158
          33         197         196
         196         197         158
          17         135         199
          59         198         135
          33         199         198
         198         199         135
          65         150         201
          20         200         150
          34         201         200
         200         201         150
          18         178         142
          52         202         178
          34         142         202
         202         142         178
          68         204         203
          20         149         204
          35         203         149
         149         203         204
          67         102         206
           9         205         102
          35         206         205
         205         206         102
           5         100         208
          63         207         100
          36         208         207
         207         208         100
          19         174         145
          50         209         174
          36         145         209
         209         145         174
          71         162         211
          25         210         162
          37         211         210
         210         211         162
          19         144         213
          69         212         144
          37         213         212
         212         213         144
          74         216         215
          22         214         216
          38         215         214
         214         215         216
          73         219         218
           2         217         219
          38         218         217
         217         218         219
          77         221         220
          23         157         221
          39         220         157
         157         220         221
          76         224         223
           8         222         224
          39         223         222
         222         223         224
          78         227         226
          24         225         227
          40         226         225
         225         226         227
          23         221         229
          77         228         221
          40         229         228
         228         229         221
          81         231         230
          25         161         231
          41         230         161
         161         230         231
          80         234         233
           3         232         234
          41         233         232
         232         233         234
          10         236         235
          27         171         236
          42         235         171
         171         235         236
          26         133          87
          10         235         133
          42          87         235
         235          87         133
          14         180         237
          29         113         180
          43         237         113
         113         237         180
          26          86         168
          14         237          86
          43         168         237
         237         168          86
          26         167         165
           6         238         167
          44         165         238
         238         165         167
          15         240         239
          30         109         240
          45         239         109
         109         239         240
          26         164         132
          15         239         164
          45         132         239
         239         132         164
           5         242         241
          28         175         242
          46         241         175
         175         241         242
          27          96         131
           5         241          96
          46         131         241
         241         131          96
          10         104         243
          31         140         104
          47         243         140
         140         243         104
          27         236         170
          10         243         236
          47         170         243
         243         170         236
          17         199         244
          33          98         199
          48         244          98
          98         244         199
          27         169          94
          17         244         169
          48          94         244
         244          94         169
          11         246         245
          29         179         246
          49         245         179
         179         245         246
          28         148         128
          11         245         148
          49         128         245
         245         128         148
           5         208         247
          36         209         208
          50         247         209
         209         247         208
          28         242         173
           5         247         242
          50         173         247
         247         173         242
          19         249         248
          35         112         249
          51         248         112
         112         248         249
          28         172         147
          19         248         172
          51         147         248
         248         147         172
          11         251         250
          34         202         251
          52         250         202
         202         250         251
          29         246         177
          11         250         246
          52         177         250
         250         177         246
          29         176          93
          18         252         176
          53          93         252
         252          93         176
          30         240         185
          15         253         240
          54         185         253
         253         185         240
          30         184         182
           1         254         184
          55         182         254
         254         182         184
          16         256         255
          31         106         256
          56         255         106
         106         255         256
          30         181         134
          16         255         181
          56         134         255
         255         134         181
          31         256         190
          16         257         256
          57         190         257
         257         190         256
           7         259         258
          32         195         259
          58         258         195
         195         258         259
          31         189         187
           7         258         189
          58         187         258
         258         187         189
          12         261         260
          33         198         261
          59         260         198
         198         260         261
          32         153         137
          12         260         153
          59         137         260
         260         137         153
          32         259         193
           7         262         259
          60         193         262
         262         193         259
          21         264         263
          38         120         264
          61         263         120
         120         263         264
          32         192         152
          21         263         192
          61         152         263
         263         152         192
          12         115         265
          39         159         115
          62         265         159
         159         265         115
          33         261         197
          12         265         261
          62         197         265
         265         197         261
          23         267         266
          36         207         267
          63         266         207
         207         266         267
          33         196          99
          23         266         196
          63          99         266
         266          99         196
          34          89         143
           4         268          89
          64         143         268
         268         143          89
          11         110         269
          35         151         110
          65         269         151
         151         269         110
          34         251         201
          11         269         251
          65         201         269
         269         201         251
          34         200          90
          20         270         200
          66          90         270
         270          90         200
          19         213         271
          37         103         213
          67         271         103
         103         271         213
          35         249         206
          19         271         249
          67         206         271
         271         206         249
          35         205         203
           9         272         205
          68         203         272
         272         203         205
          13         274         273
          37         212         274
          69         273         212
         212         273         274
          36          82         146
          13         273          82
          69         146         273
         273         146          82
          23         229         275
          40         155         229
          70         275         155
         155         275         229
          36         267          83