 VARIABLES = "X", "Y", "U" 
 ZONE F=FEPOINT, ET=TRIANGLE, N=        1089  E=        2048
  0.0000000E+00  0.0000000E+00  1.0858214E-05
   1.000000      0.0000000E+00  1.9181903E-07
   1.000000       1.000000     -6.4083985E-28
  0.0000000E+00   1.000000     -5.5648969E-29
  0.5000000      0.5000000     -3.7727500E-06
  0.0000000E+00  0.5000000     -2.3267475E-08
  0.5000000      0.0000000E+00  6.1702188E-02
   1.000000      0.5000000      5.0175504E-09
  0.5000000       1.000000     -1.8993240E-14
  0.2500000      0.2500000      6.1348725E-02
  0.2500000      0.7500000      2.7956519E-09
  0.7500000      0.2500000     -3.4968489E-05
  0.7500000      0.7500000     -4.1205675E-13
  0.2500000      0.5000000     -4.9097482E-05
  0.0000000E+00  0.2500000      5.6712302E-06
  0.2500000      0.0000000E+00  1.3535265E-02
  0.5000000      0.2500000      0.1825646    
  0.0000000E+00  0.7500000     -9.0937631E-12
  0.5000000      0.7500000      3.8621861E-09
  0.2500000       1.000000     -4.5661744E-14
  0.7500000      0.0000000E+00 -1.3247492E-04
   1.000000      0.2500000      4.8910039E-07
  0.7500000      0.5000000      2.4456009E-08
   1.000000      0.7500000     -9.0257100E-14
  0.7500000       1.000000     -6.1712306E-17
  0.1250000      0.3750000      1.7524460E-05
  0.3750000      0.3750000      2.7731510E-03
  0.3750000      0.6250000      1.1815780E-06
  0.1250000      0.6250000     -2.1041702E-08
  0.1250000      0.1250000      6.0729653E-04
  0.3750000      0.1250000      0.9544439    
  0.6250000      0.1250000      1.1840058E-03
  0.6250000      0.3750000      6.9825173E-06
  0.1250000      0.8750000     -7.1247397E-13
  0.3750000      0.8750000      4.5322673E-11
  0.6250000      0.6250000     -4.1960984E-08
  0.6250000      0.8750000     -1.4031919E-13
  0.8750000      0.1250000     -7.8964495E-06
  0.8750000      0.3750000     -2.8603634E-07
  0.8750000      0.6250000     -9.2524939E-11
  0.8750000      0.8750000      2.1304744E-15
  0.2500000      0.3750000      1.0544369E-03
  0.1250000      0.5000000      6.1316978E-06
  0.0000000E+00  0.3750000      2.5548052E-06
  0.1250000      0.2500000      9.4977749E-04
  0.3750000      0.5000000      7.6597273E-05
  0.3750000      0.2500000      0.4479770    
  0.5000000      0.3750000      1.2219361E-03
  0.2500000      0.6250000     -1.3630863E-07
  0.5000000      0.6250000     -5.8718528E-09
  0.3750000      0.7500000      1.5420262E-08
  0.1250000      0.7500000     -8.3283680E-10
  0.0000000E+00  0.6250000     -8.5787537E-09
  0.0000000E+00  0.1250000      3.2981782E-06
  0.1250000      0.0000000E+00  4.5496217E-04
  0.2500000      0.1250000      0.1797595    
  0.3750000      0.0000000E+00  0.1781968    
  0.5000000      0.1250000      0.4600789    
  0.6250000      0.2500000      2.1752853E-04
  0.6250000      0.0000000E+00  2.2569047E-04
  0.7500000      0.1250000     -1.8539853E-04
  0.7500000      0.3750000      2.5304046E-06
  0.6250000      0.5000000      6.6695230E-07
  0.0000000E+00  0.8750000      6.0313286E-20
  0.2500000      0.8750000     -3.6399841E-12
  0.1250000       1.000000     -1.2439913E-21
  0.5000000      0.8750000     -2.6946423E-12
  0.3750000       1.000000     -1.2400822E-14
  0.6250000      0.7500000     -4.9857583E-11
  0.7500000      0.6250000     -3.2220792E-11
  0.7500000      0.8750000     -2.3039347E-15
  0.6250000       1.000000      4.0343044E-16
  0.8750000      0.0000000E+00 -6.8315796E-07
   1.000000      0.1250000      4.0469990E-07
  0.8750000      0.2500000      2.3007397E-06
   1.000000      0.3750000     -5.1563809E-08
  0.8750000      0.5000000     -1.6190170E-09
   1.000000      0.6250000     -4.1806208E-11
  0.8750000      0.7500000     -3.3878514E-12
   1.000000      0.8750000     -8.1867038E-24
  0.8750000       1.000000     -3.9870300E-22
  0.1875000      0.4375000      2.5749463E-05
  0.1875000      0.3125000      1.2673065E-03
  0.3125000      0.3125000      4.6848990E-02
  0.3125000      0.4375000      8.9269091E-04
  6.2500000E-02  0.4375000      6.3628136E-06
  0.1875000      0.5625000      3.4670766E-06
  6.2500000E-02  0.5625000     -1.0077135E-07
  6.2500000E-02  0.3125000     -4.1890242E-05
  6.2500000E-02  0.1875000      6.2515886E-05
  0.1875000      0.1875000      1.0205316E-02
  0.4375000      0.4375000      1.1546684E-03
  0.4375000      0.5625000      4.2558949E-07
  0.3125000      0.5625000     -2.4305834E-06
  0.4375000      0.3125000      8.2161747E-02
  0.3125000      0.1875000      0.5469958    
  0.4375000      0.1875000      0.8025421    
  0.5625000      0.3125000      2.8493991E-03
  0.5625000      0.4375000     -1.7963539E-05
  0.3125000      0.6875000     -1.1838764E-07
  0.1875000      0.6875000      4.1105160E-08
  0.4375000      0.6875000     -8.3352248E-08
  0.5625000      0.5625000      1.6402801E-06
  0.5625000      0.6875000      9.9268833E-09
  0.4375000      0.8125000     -6.9430872E-10
  0.3125000      0.8125000     -9.9778463E-10
  6.2500000E-02  0.6875000     -2.6896894E-09
  0.1875000      0.8125000      1.3724794E-10
  6.2500000E-02  0.8125000     -5.3586805E-12
  6.2500000E-02  6.2500000E-02 -5.4040811E-05
  0.1875000      6.2500000E-02  3.3309346E-03
  0.3125000      6.2500000E-02  0.3608819    
  0.4375000      6.2500000E-02  0.5567331    
  0.5625000      6.2500000E-02  4.5123283E-02
  0.5625000      0.1875000      8.3622031E-02
  0.6875000      0.1875000      8.2508178E-04
  0.6875000      0.3125000      9.6963879E-07
  0.6875000      6.2500000E-02  1.1151066E-03
  0.8125000      6.2500000E-02  4.8578600E-05
  0.8125000      0.1875000      3.9902861E-05
  0.6875000      0.4375000      4.5016031E-06
  0.8125000      0.3125000     -5.7501693E-06
  0.8125000      0.4375000      9.1169404E-08
  0.6875000      0.5625000     -4.3265103E-09
  6.2500000E-02  0.9375000      1.1357747E-20
  0.1875000      0.9375000      2.1400954E-13
  0.3125000      0.9375000      1.3387258E-13
  0.4375000      0.9375000     -1.0203888E-13
  0.5625000      0.8125000      4.4721636E-11
  0.5625000      0.9375000      3.9218561E-14
  0.6875000      0.6875000     -7.3063763E-11
  0.6875000      0.8125000     -3.0331139E-13
  0.8125000      0.5625000     -1.8541221E-10
  0.8125000      0.6875000      6.5649140E-12
  0.6875000      0.9375000      6.3976684E-16
  0.8125000      0.8125000     -1.6627188E-13
  0.8125000      0.9375000     -3.5786912E-16
  0.9375000      6.2500000E-02 -9.9717575E-08
  0.9375000      0.1875000     -1.1662316E-06
  0.9375000      0.3125000     -1.9989938E-07
  0.9375000      0.4375000      1.8860613E-09
  0.9375000      0.5625000      5.2756727E-10
  0.9375000      0.6875000      4.9595365E-13
  0.9375000      0.8125000     -5.7866628E-14
  0.9375000      0.9375000     -8.5568765E-23
  0.1875000      0.3750000      5.9893663E-04
  0.2500000      0.4375000      4.1330667E-04
  0.1875000      0.5000000     -1.1855643E-05
  0.1250000      0.4375000     -1.8507877E-05
  0.2500000      0.3125000      5.3292266E-03
  0.1250000      0.3125000      4.2525321E-04
  0.1875000      0.2500000      2.0428284E-03
  0.3125000      0.3750000     -7.0427480E-04
  0.3125000      0.2500000      0.2632314    
  0.3750000      0.3125000      0.1022799    
  0.3750000      0.4375000      5.3927832E-04
  0.3125000      0.5000000      4.7632067E-05
  6.2500000E-02  0.5000000     -1.7786870E-07
  0.0000000E+00  0.4375000     -2.4928836E-08
  6.2500000E-02  0.3750000     -4.3942732E-06
  0.1250000      0.5625000      9.7616400E-08
  0.2500000      0.5625000      6.3269049E-08
  0.1875000      0.6250000     -1.1838884E-07
  6.2500000E-02  0.6250000      8.1224965E-09
  0.0000000E+00  0.5625000      4.8085371E-09
  0.0000000E+00  0.3125000      5.1907432E-06
  6.2500000E-02  0.2500000      2.6830288E-05
  0.1250000      0.1875000      4.3386625E-04
  0.0000000E+00  0.1875000     -4.1788027E-07
  6.2500000E-02  0.1250000     -1.4196112E-05
  0.1875000      0.1250000      1.5096835E-02
  0.2500000      0.1875000      0.1595899    
  0.4375000      0.5000000      2.2296032E-05
  0.4375000      0.3750000      1.2942447E-03
  0.5000000      0.4375000      5.6631875E-04
  0.3750000      0.5625000     -7.2561616E-06
  0.5000000      0.5625000      7.2889242E-07
  0.4375000      0.6250000      4.2157049E-07
  0.3125000      0.6250000      1.1360734E-06
  0.4375000      0.2500000      0.4189216    
  0.5000000      0.3125000      2.8805817E-02
  0.3750000      0.1875000      0.8668400    
  0.3125000      0.1250000      0.5929919    
  0.4375000      0.1250000      0.8726223    
  0.5000000      0.1875000      0.4182476    
  0.5625000      0.3750000     -3.9915612E-05
  0.5625000      0.2500000      2.8302375E-02
  0.6250000      0.3125000      2.3513500E-04
  0.6250000      0.4375000      3.2159565E-07
  0.5625000      0.5000000     -8.0060972E-06
  0.2500000      0.6875000     -4.7784592E-08
  0.3750000      0.6875000     -7.2514176E-08
  0.3125000      0.7500000      5.5741900E-09
  0.1875000      0.7500000      2.0229122E-11
  0.1250000      0.6875000      4.5393453E-09
  0.5000000      0.6875000      1.7653253E-08
  0.4375000      0.7500000      2.5936819E-09
  0.5625000      0.6250000     -5.4077997E-08
  0.6250000      0.5625000     -9.0096597E-09
  0.6250000      0.6875000      1.8138115E-10
  0.5625000      0.7500000     -3.0771782E-10
  0.3750000      0.8125000     -3.1463143E-10
  0.5000000      0.8125000     -3.9116727E-11
  0.4375000      0.8750000      3.7840889E-12
  0.3125000      0.8750000      2.5035262E-12
  0.2500000      0.8125000     -6.6005729E-11
  6.2500000E-02  0.7500000      1.8332511E-11
  0.0000000E+00  0.6875000     -3.1884169E-11
  0.1250000      0.8125000      7.7197805E-12
  0.1875000      0.8750000     -1.1172904E-12
  6.2500000E-02  0.8750000     -9.0433692E-20
  0.0000000E+00  0.8125000      3.9617027E-19
  0.0000000E+00  6.2500000E-02  6.8994591E-06
  6.2500000E-02  0.0000000E+00 -7.8264929E-06
  0.1250000      6.2500000E-02 -1.2800570E-04
  0.1875000      0.0000000E+00  3.5703543E-04
  0.2500000      6.2500000E-02  9.7418733E-02
  0.3125000      0.0000000E+00  9.5745347E-02
  0.3750000      6.2500000E-02  0.5987765    
  0.4375000      0.0000000E+00  0.1670060    
  0.5000000      6.2500000E-02  0.2707628    
  0.5625000      0.1250000      9.9086933E-02
  0.5625000      0.0000000E+00  3.9762147E-03
  0.6250000      6.2500000E-02 -2.7712481E-03
  0.6250000      0.1875000      3.8090302E-04
  0.6875000      0.2500000      2.4135270E-04
  0.6875000      0.1250000      6.7994127E-04
  0.7500000      0.1875000     -1.6831949E-04
  0.7500000      0.3125000      2.4483314E-05
  0.6875000      0.3750000     -2.0178655E-05
  0.6875000      0.0000000E+00  2.9907553E-04
  0.7500000      6.2500000E-02 -1.0069894E-04
  0.8125000      0.1250000      4.4307224E-05
  0.8125000      0.0000000E+00  2.1828013E-05
  0.8750000      6.2500000E-02 -5.0056333E-06
  0.8750000      0.1875000     -3.4858319E-06
  0.8125000      0.2500000      5.1908623E-06
  0.7500000      0.4375000      4.2376425E-07
  0.6875000      0.5000000     -8.6925755E-09
  0.8125000      0.3750000     -1.7241376E-06
  0.8750000      0.3125000      1.0261916E-06
  0.8750000      0.4375000     -1.1560771E-08
  0.8125000      0.5000000      4.5063286E-09
  0.7500000      0.5625000      1.1600400E-11
  0.6875000      0.6250000     -1.4577811E-11
  0.0000000E+00  0.9375000     -8.0581650E-28
  0.1250000      0.9375000      4.8211273E-21
  6.2500000E-02   1.000000     -3.8811545E-29
  0.2500000      0.9375000      1.5585684E-13
  0.1875000       1.000000     -6.4316771E-22
  0.3750000      0.9375000      2.3866529E-13
  0.3125000       1.000000     -3.0311250E-14
  0.5000000      0.9375000      9.3913233E-14
  0.4375000       1.000000     -1.7032869E-14
  0.5625000      0.8750000     -9.7489573E-13
  0.6250000      0.8125000     -8.2851701E-14
  0.6250000      0.9375000     -1.5344312E-16
  0.5625000       1.000000     -9.6123469E-16
  0.6875000      0.7500000     -5.1001477E-13
  0.7500000      0.6875000     -1.6325278E-12
  0.7500000      0.8125000      1.2798500E-13
  0.6875000      0.8750000      1.3088019E-15
  0.8125000      0.6250000     -1.7015526E-10
  0.8750000      0.5625000      2.6733718E-10
  0.8750000      0.6875000     -1.7332618E-11
  0.8125000      0.7500000      3.6380287E-12
  0.7500000      0.9375000     -1.0443347E-15
  0.6875000       1.000000      6.0209299E-17
  0.8125000      0.8750000     -1.4665307E-14
  0.8750000      0.8125000      2.0061880E-14
  0.8750000      0.9375000      3.7242492E-22
  0.8125000       1.000000     -3.2880740E-22
  0.9375000      0.0000000E+00 -3.0718687E-07
   1.000000      6.2500000E-02  4.3420879E-08
  0.9375000      0.1250000      3.1039210E-07
   1.000000      0.1875000      1.8101076E-07
  0.9375000      0.2500000     -9.5039485E-07
   1.000000      0.3125000     -4.2418562E-09
  0.9375000      0.3750000     -7.6457054E-09
   1.000000      0.4375000      2.2387543E-09
  0.9375000      0.5000000     -2.3424722E-09
   1.000000      0.5625000      9.4001050E-11
  0.9375000      0.6250000      5.9303944E-11
   1.000000      0.6875000     -5.6703649E-13
  0.9375000      0.7500000     -3.7212781E-13
   1.000000      0.8125000     -2.1360616E-23
  0.9375000      0.8750000      7.5965404E-24
   1.000000      0.9375000     -3.1969320E-28
  0.9375000       1.000000      3.2743548E-27
  0.7187500      0.7187500      2.1351100E-13
  0.7187500      0.6875000      1.0281087E-11
  0.7500000      0.7187500      1.2494922E-13
  0.2187500      0.4062500      2.3980635E-04
  0.1875000      0.4062500      3.8875538E-04
  0.2187500      0.3750000     -2.6534303E-04
  3.1250000E-02   1.000000     -3.1521870E-29
  3.1250000E-02  0.9687500      3.6508223E-29
  6.2500000E-02  0.9687500      3.0956995E-29
  0.0000000E+00  0.5312500     -2.7451597E-08
  3.1250000E-02  0.5312500     -1.9148167E-08
  3.1250000E-02  0.5625000     -6.6523231E-09
  0.4687500      0.4375000      2.2489507E-05
  0.5000000      0.4687500      2.7203825E-04
  0.4687500      0.4687500      1.1942723E-04
  0.5312500      0.4687500      1.9565665E-05
  0.5312500      0.4375000      1.0074677E-04
  0.5625000      0.4687500      6.3759599E-06
  0.5312500      0.5000000      6.6143747E-07
  0.5312500      0.9687500      1.9843456E-15
  0.5000000      0.9687500      5.8150243E-15
  0.5312500      0.9375000      9.8283923E-14
  0.3437500      0.1562500      0.8327957    
  0.3125000      0.1562500      0.6095123    
  0.3437500      0.1250000      0.8056086    
  0.2187500      0.2187500      3.6610734E-02
  0.2187500      0.2500000      1.6316663E-02
  0.1875000      0.2187500      5.9664515E-03
  0.2812500      0.7812500     -1.4097477E-09
  0.2812500      0.7500000      7.0951875E-09
  0.3125000      0.7812500      1.0150532E-09
  6.2500000E-02  0.5312500     -3.5439629E-07
  3.1250000E-02  0.5000000     -9.1487699E-08
  0.8437500      0.3437500      4.7131641E-07
  0.8437500      0.3125000      1.5196323E-06
  0.8750000      0.3437500     -3.4494423E-07
  0.7812500      0.2187500      1.4765565E-05
  0.7500000      0.2187500     -1.0027831E-04
  0.7812500      0.1875000     -1.4674453E-05
  0.5625000      0.9687500     -1.8830056E-16
  0.5312500       1.000000     -1.3997455E-15
  0.8437500      0.8437500      6.1335133E-16
  0.8437500      0.8125000     -6.5610820E-14
  0.8750000      0.8437500     -2.3526655E-14
  0.2500000      0.5937500      2.4210080E-06
  0.2812500      0.5625000     -4.3392861E-06
  0.2812500      0.5937500      9.2388552E-07
  0.2812500      0.5000000      5.0101039E-06
  0.2812500      0.4687500      2.5524379E-04
  0.3125000      0.4687500      3.2698043E-04
  0.1875000      0.2812500      1.2431281E-03
  0.2187500      0.2812500      2.3968844E-03
  0.2187500      0.1875000      5.6263551E-02
  0.2500000      0.2187500      0.1144301    
  0.5937500      0.2500000      2.2289031E-03
  0.5625000      0.2187500      5.9399363E-02
  0.5937500      0.2187500      1.3369962E-02
  0.4687500      0.2187500      0.4848722    
  0.4687500      0.2500000      0.3094129    
  0.4375000      0.2187500      0.6246405    
  0.0000000E+00  0.7812500      7.1093088E-18
  3.1250000E-02  0.7812500     -3.4653292E-12
  3.1250000E-02  0.8125000      2.5505460E-19
  0.5312500      0.7500000     -1.9564571E-10
  0.5312500      0.7187500      9.8583885E-10
  0.5625000      0.7187500      7.4991247E-10
  0.3125000      0.7187500     -8.4694518E-09
  0.2812500      0.7187500     -1.0959899E-09
  0.2812500      0.9687500      2.1718601E-14
  0.2500000      0.9687500      7.2631225E-14
  0.2812500      0.9375000      7.0878287E-14
  0.7187500      0.1875000      7.9201403E-05
  0.7187500      0.2187500      4.8662052E-05
  0.8125000      0.2187500      1.6106349E-05
  0.7812500      0.2500000      1.4670539E-05
  0.7812500      0.6875000     -9.6069047E-12
  0.7812500      0.7187500      8.8190067E-13
  0.7812500      0.4687500     -2.3056106E-08
  0.7500000      0.4687500     -2.5759626E-08
  0.7812500      0.4375000      2.8419154E-07
  0.8125000      0.7187500     -3.1991016E-12
  0.7812500      0.7500000      1.8363160E-12
  0.7812500      0.9687500      6.6649257E-17
  0.7500000      0.9687500      4.7912723E-17
  0.7812500      0.9375000     -1.1193519E-15
  9.3750000E-02  0.3437500      1.0694425E-05
  9.3750000E-02  0.3750000     -1.2771357E-05
  6.2500000E-02  0.3437500     -1.5680927E-05
  9.3750000E-02  0.4062500     -1.6123453E-05
  0.1250000      0.4062500     -2.0366269E-05
  9.3750000E-02  0.4375000     -1.6784570E-06
  0.4062500      0.3437500      2.8662726E-02
  0.3750000      0.3437500      2.5126847E-02
  0.4062500      0.3125000      0.1046355    
  0.2812500      0.4375000      2.8205602E-04
  0.2500000      0.4687500      1.4091212E-04
  0.4062500      0.6562500      6.8223933E-08
  0.4062500      0.6250000      1.0042197E-06
  0.4375000      0.6562500      1.1905305E-07
  0.3125000      0.5312500     -2.4148592E-05
  0.2812500      0.5312500     -1.1740384E-05
  9.3750000E-02  0.6562500      5.6593730E-09
  0.1250000      0.6562500      7.4645412E-10
  9.3750000E-02  0.6875000     -4.1671575E-10
  0.1562500      0.6250000     -1.5782483E-07
  0.1562500      0.5937500      8.7808601E-08
  0.1875000      0.5937500      6.3150674E-07
  0.1562500      9.3750000E-02 -4.0453352E-04
  0.1250000      9.3750000E-02 -3.7927800E-04
  0.1562500      6.2500000E-02 -3.1043653E-04
  9.3750000E-02  9.3750000E-02  1.1984273E-04
  9.3750000E-02  0.1250000      1.1153441E-04
  6.2500000E-02  9.3750000E-02 -4.2949880E-05
  0.4687500      0.1875000      0.6205767    
  0.5000000      0.2187500      0.3175488    
  0.4062500      9.3750000E-02  0.8333014    
  0.3750000      9.3750000E-02  0.8011569    
  0.4062500      6.2500000E-02  0.6092836    
  0.6562500      9.3750000E-02 -4.4865004E-04
  0.6250000      9.3750000E-02 -7.7561557E-04
  0.6562500      6.2500000E-02 -5.7307858E-04
  0.5312500      0.1875000      0.2266913    
  0.5312500      0.2187500      0.1490490    
  0.6562500      0.4062500      5.6117011E-07
  0.6562500      0.3750000      2.2054071E-05
  0.6875000      0.4062500     -6.8711206E-06
  0.6250000      0.3437500     -5.8193003E-05
  0.5937500      0.3437500      3.6581772E-05
  0.5937500      0.3125000      7.0424791E-04
  0.1562500      0.9062500      3.2140206E-13
  0.1562500      0.8750000     -1.2409402E-12
  0.1875000      0.9062500     -4.8431956E-13
  6.2500000E-02  0.7812500      1.2070361E-11
  3.1250000E-02  0.7500000      2.1627729E-11
  0.3125000      0.9687500      2.5894575E-14
  0.2812500       1.000000     -2.1355010E-14
  0.4062500      0.9062500     -4.5267867E-13
  0.4062500      0.8750000      7.2668486E-12
  0.4375000      0.9062500     -4.0468909E-13
  0.6250000      0.5937500     -2.4465141E-08
  0.5937500      0.5937500      2.0066895E-07
  0.5937500      0.5625000      2.1780176E-07
  0.5312500      0.6875000      1.5784298E-08
  0.5000000      0.7187500      7.5446254E-09
  0.6562500      0.9062500      9.7677097E-16
  0.6562500      0.8750000      1.1912224E-15
  0.6875000      0.9062500     -1.4640256E-15
  0.6250000      0.8437500     -2.3037239E-13
  0.5937500      0.8437500      5.5809529E-13
  0.5937500      0.8125000      1.8228455E-12
  0.9062500      0.1562500      1.6096891E-06
  0.9062500      0.1250000      2.4341882E-06
  0.9375000      0.1562500     -1.0169747E-07
  0.9062500      9.3750000E-02  2.7543781E-06
  0.8750000      9.3750000E-02 -1.0429484E-05
  0.9062500      6.2500000E-02  2.1761341E-06
  0.8125000      0.4687500     -8.9988488E-09
  0.7812500      0.5000000      4.0240948E-09
  0.9062500      0.4062500      2.6519839E-08
  0.9062500      0.3750000      9.9187311E-08
  0.9375000      0.4062500     -4.7586493E-08
  0.9062500      0.6562500      3.4541205E-12
  0.9062500      0.6250000      6.7723306E-11
  0.9375000      0.6562500     -1.3132617E-11
  0.8750000      0.5937500      1.8748672E-10
  0.8437500      0.5937500     -5.5531385E-11
  0.8437500      0.5625000     -1.9146280E-10
  0.8125000      0.9687500     -2.7282386E-21
  0.7812500       1.000000     -1.1398302E-20
  0.9062500      0.9062500      1.5736115E-22
  0.9062500      0.8750000      2.2850943E-22
  0.9375000      0.9062500     -7.9731106E-23
  0.2812500      0.3750000     -2.8882388E-04
  0.2812500      0.3437500      7.4127264E-04
  0.3125000      0.3437500      9.3977610E-03
  0.2500000      0.3437500     -3.0779614E-04
  0.2187500      0.3437500     -8.4779458E-04
  0.2187500      0.3125000     -3.9969603E-04
  0.1250000      0.5312500      1.4897835E-06
  0.1562500      0.5312500      7.4441721E-07
  0.1562500      0.5625000      6.9713781E-07
  0.1562500      0.4375000     -8.6058262E-06
  0.1562500      0.4062500      4.8839440E-05
  6.2500000E-02  0.4062500      4.4937474E-06
  0.1250000      0.2187500      9.2567987E-04
  9.3750000E-02  0.2187500      2.2333296E-04
  9.3750000E-02  0.1875000      1.8306250E-04
  9.3750000E-02  0.2812500      1.5344963E-04
  0.1250000      0.2812500      3.4657636E-04
  9.3750000E-02  0.3125000      6.7976354E-05
  0.3750000      0.5312500      2.9526333E-07
  0.4062500      0.5312500      1.0909220E-06
  0.4062500      0.5625000     -6.0305765E-06
  0.4062500      0.5000000      8.1422841E-05
  0.4062500      0.4687500      2.3820977E-04
  0.4375000      0.4687500      2.9538586E-04
  0.3750000      0.2187500      0.6826631    
  0.3437500      0.2187500      0.5777720    
  0.3437500      0.1875000      0.7422484    
  0.3437500      0.3125000      7.8138560E-02
  0.3437500      0.3437500      1.9007428E-02
  0.5312500      0.3750000     -3.6050253E-05
  0.5312500      0.3437500      1.8227450E-03
  0.5625000      0.3437500      5.9623114E-04
  0.4687500      0.3437500      1.2033663E-02
  0.4687500      0.3750000      2.0034886E-03
  0.4375000      0.3437500      2.2135723E-02
  0.1875000      0.6562500     -8.7302702E-08
  0.1562500      0.6562500      1.0900867E-08
  0.2500000      0.6562500     -9.5757464E-08
  0.2812500      0.6562500     -9.8914036E-08
  0.2812500      0.6875000     -4.0400529E-08
  0.5312500      0.6250000      7.8724547E-08
  0.5312500      0.5937500      1.6242582E-07
  0.5625000      0.5937500      1.4227414E-08
  0.4375000      0.5937500      4.2820940E-07
  0.4062500      0.5937500     -5.6871926E-07
  0.3750000      0.7812500      8.9575358E-10
  0.4062500      0.7812500      9.2953217E-10
  0.4062500      0.8125000     -4.0229348E-10
  0.4062500      0.7187500     -5.9757235E-09
  0.3750000      0.7187500     -1.9772605E-08
  0.4062500      0.6875000     -4.3675659E-08
  0.1250000      0.7812500      8.3296035E-12
  0.1562500      0.7812500      4.2011280E-11
  0.1562500      0.8125000      3.9739215E-12
  0.1562500      0.6875000      2.6938165E-09
  3.1250000E-02  0.6562500     -4.3472856E-10
  3.1250000E-02  0.6250000      1.9550039E-09
  6.2500000E-02  0.6562500      2.3870825E-09
  6.2500000E-02  0.1562500      4.9423637E-05
  9.3750000E-02  0.1562500      1.9338058E-05
  9.3750000E-02  6.2500000E-02  1.6227050E-04
  0.3125000      9.3750000E-02  0.5054812    
  0.3437500      9.3750000E-02  0.6847781    
  0.2187500      9.3750000E-02  4.9509685E-02
  0.2187500      0.1250000      6.5095350E-02
  0.1875000      9.3750000E-02  1.0123403E-02
  0.3437500      6.2500000E-02  0.5120221    
  0.5312500      0.1250000      0.2478137    
  0.5312500      9.3750000E-02  0.2016030    
  0.5625000      9.3750000E-02  7.7831760E-02
  0.4687500      9.3750000E-02  0.5778032    
  0.4687500      0.1250000      0.6834017    
  0.4375000      9.3750000E-02  0.7434621    
  0.6562500      0.3125000      1.0314668E-04
  0.6562500      0.3437500     -7.0192313E-05
  0.6562500      0.2500000      5.0211500E-04
  0.6562500      0.2187500      1.3215352E-04
  0.6875000      0.2187500      4.9276272E-04
  0.5937500      6.2500000E-02  7.0687714E-03
  0.5937500      9.3750000E-02  1.6893929E-02
  0.7812500      0.1250000     -2.7035025E-05
  0.7812500      9.3750000E-02 -3.8847142E-05
  0.8125000      9.3750000E-02  4.4263063E-05
  0.7187500      9.3750000E-02  1.8964797E-04
  0.7187500      0.1250000      3.1079756E-04
  0.6875000      9.3750000E-02  7.6932012E-04
  0.7812500      0.3750000      1.8696863E-06
  0.7812500      0.3437500     -1.5889261E-06
  0.8125000      0.3437500      1.6827557E-06
  0.6875000      0.3437500      2.1151140E-05
  0.6562500      0.5625000     -2.0538471E-09
  0.6562500      0.5937500     -1.0715202E-10
  0.6562500      0.4687500      1.8728474E-06
  0.6250000      0.4687500     -5.7791035E-06
  0.6562500      0.4375000     -5.9380918E-06
  0.0000000E+00  0.9062500      1.0579758E-27
  3.1250000E-02  0.9062500      4.5934383E-20
  3.1250000E-02  0.9375000      2.9663638E-28
  0.2812500      0.8125000     -1.2449917E-10
  0.2500000      0.7812500     -2.2378235E-11
  0.1875000      0.8437500      2.4503442E-12
  0.1562500      0.8437500      1.2151663E-12
  0.1562500      0.9687500      6.8393650E-22
  0.1250000      0.9687500      1.1254898E-21
  0.1562500      0.9375000      5.1139480E-21
  0.5312500      0.8750000     -1.0143843E-12
  0.5312500      0.8437500      4.3114015E-12
  0.5625000      0.8437500      3.2982844E-12
  0.4375000      0.8437500     -7.9385934E-12
  0.4062500      0.8437500     -1.4802879E-11
  0.4062500      0.9687500      1.9181513E-14
  0.3750000      0.9687500      5.2135441E-15
  0.4062500      0.9375000      2.4442487E-13
  0.6562500      0.8125000     -3.5413526E-13
  0.6562500      0.8437500     -1.4867487E-14
  0.6562500      0.7500000      5.6273893E-13
  0.6562500      0.7187500      2.3518672E-12
  0.6875000      0.7187500     -8.8117512E-13
  0.7812500      0.6250000     -3.6667652E-11
  0.7812500      0.5937500      2.3704681E-11
  0.8125000      0.5937500      9.3565149E-11
  0.6875000      0.5937500     -4.4416158E-11
  0.6562500      0.6250000     -8.3138933E-11
  0.7812500      0.8750000     -2.2993500E-14
  0.7812500      0.8437500     -2.1768973E-15
  0.8125000      0.8437500      3.3932316E-14
  0.6875000      0.8437500      4.5595788E-15
  0.6562500      0.9687500     -1.4245180E-17
  0.6250000      0.9687500     -7.2424923E-17
  0.6562500      0.9375000     -3.7148787E-16
  0.8437500      6.2500000E-02 -1.0585998E-06
  0.8437500      9.3750000E-02 -1.8457631E-07
  0.9375000      9.3750000E-02  1.1783118E-06
  0.9062500      0.3125000     -2.5301571E-07
  0.9062500      0.3437500     -2.3439007E-07
  0.9062500      0.2187500      2.7684362E-06
  0.8750000      0.2187500     -1.1585047E-06
  0.9062500      0.1875000      2.9353525E-06
  0.9375000      0.3437500      1.4136434E-07
  0.9062500      0.5625000      2.2616502E-10
  0.9062500      0.5937500     -2.1486174E-10
  0.9062500      0.4687500      5.3421934E-09
  0.8750000      0.4687500      4.4251385E-09
  0.9062500      0.4375000     -2.4711671E-08
  0.9375000      0.5937500     -7.5439550E-11
  0.9062500      0.8125000     -2.1091085E-14
  0.9062500      0.8437500     -3.4652761E-16
  0.9062500      0.7187500      4.4938974E-12
  0.8750000      0.7187500      5.9266901E-12
  0.9062500      0.6875000     -8.5574837E-12
  0.9375000      0.8437500      3.3087348E-23
  0.9062500      0.9687500     -6.0146031E-23
  0.8750000      0.9687500      3.4559350E-22
  0.9062500      0.9375000      1.4639016E-22
  0.1562500      0.4687500     -1.7381672E-05
  0.1875000      0.4687500     -1.7409579E-05
  0.1562500      0.5000000      4.0547559E-07
  0.2187500      0.4687500      2.5100231E-05
  0.2187500      0.4375000      1.6784419E-04
  0.1562500      0.2812500     -3.2888676E-04
  0.1562500      0.3125000     -6.3648928E-05
  0.1875000      0.3437500      1.5721156E-04
  0.3437500      0.2812500      0.2028679    
  0.3125000      0.2812500      0.1351339    
  0.3437500      0.2500000      0.3801982    
  0.2812500      0.3125000      2.1033209E-02
  0.3437500      0.4687500      2.8364424E-04
  0.3437500      0.4375000      3.8417472E-04
  0.3750000      0.4687500      4.8353360E-04
  0.3125000      0.4062500     -1.1949932E-03
  0.2812500      0.4062500     -2.9526366E-04
  3.1250000E-02  0.4062500      8.0874582E-07
  3.1250000E-02  0.4375000      5.5463295E-07
  0.0000000E+00  0.4062500      5.8862219E-07
  3.1250000E-02  0.4687500      1.2392529E-07
  6.2500000E-02  0.4687500      1.2443201E-06
  0.2187500      0.5937500      5.8949098E-07
  0.2187500      0.5625000      3.3787189E-06
  0.1875000      0.5312500     -3.6703597E-07
  3.1250000E-02  0.5937500      9.7755164E-09
  6.2500000E-02  0.5937500     -1.4663655E-08
  9.3750000E-02  0.5625000     -2.1508620E-07
  9.3750000E-02  0.5312500      4.3068732E-07
  6.2500000E-02  0.2812500     -2.0361129E-05
  9.3750000E-02  0.2500000      1.9300742E-04
  3.1250000E-02  0.2812500     -6.3150774E-06
  3.1250000E-02  0.3125000     -7.3232181E-06
  0.0000000E+00  0.2812500      3.8169205E-06
  3.1250000E-02  0.1562500     -3.6584478E-08